 Gaussian 09, Revision A.02,

 ---------------------
 #T B3LYP/6-311++G opt
 ---------------------
 ---------
 gdb_1_opt
 ---------
 Symbolic Z-matrix:
 Charge =  0 Multiplicity = 1

 SCF Done:  E(RB3LYP) =  -40.5209776106     A.U. after    7 cycles
 SCF Done:  E(RB3LYP) =  -40.5209950797     A.U. after   10 cycles
 Optimization completed.
    -- Stationary point found.

 The electronic state is 1-A.
 Alpha  occ. eigenvalues --  -10.15223  -0.70067  -0.39753  -0.39752  -0.39752
 Alpha virt. eigenvalues --   -0.00530   0.04022   0.04022   0.04022   0.09212
 Alpha virt. eigenvalues --    0.09213   0.09213   0.12279   0.19071   0.19071
 Alpha virt. eigenvalues --    0.19071   0.27940   0.41601   0.41602   0.41602

 Normal termination of Gaussian 09 at Fri Nov 16 15:40:09 2018.
 Gaussian 09:  AM64L-G09RevA.02 11-Jun-2009

 ----------------------------------------------------------------------
 #T MP2/6-311++G(d,p) geom=check guess=read output=wfn density=current
 pop=npa
 ----------------------------------------------------------------------

 gdb_1
 -----
 Redundant internal coordinates taken from checkpoint file:
 gdb_1_chk.chk
 Charge =  0 Multiplicity = 1

                         Standard orientation:
 ---------------------------------------------------------------------
 Center     Atomic      Atomic             Coordinates (Angstroms)
 Number     Number       Type             X           Y           Z
 ---------------------------------------------------------------------
      1          6           0       -0.000004    0.000002   -0.000002
      2          1           0        0.234991    0.970005    0.436638
      3          1           0        0.018824   -0.762517    0.777812
      4          1           0       -0.991370    0.035017   -0.450271
      5          1           0        0.737580   -0.242515   -0.764165
 ---------------------------------------------------------------------

 SCF Done:  E(RHF) =  -40.2090815271     A.U. after    8 cycles
 E2 =    -0.1705545615D+00 EUMP2 =    -0.40379636088657D+02

 Mulliken atomic charges:
              1
     1  C   -0.533271
     2  H    0.133318
     3  H    0.133318
     4  H    0.133318
     5  H    0.133317
 Sum of Mulliken atomic charges =   0.00000

 Dipole moment (field-independent basis, Debye):
    X=              0.0000    Y=              0.0000    Z=              0.0000  Tot=              0.0000
 ******************************Gaussian NBO Version 3.1******************************
             N A T U R A L   A T O M I C   O R B I T A L   A N D
          N A T U R A L   B O N D   O R B I T A L   A N A L Y S I S
 ******************************Gaussian NBO Version 3.1******************************
       /RESON  / : Allow strongly delocalized NBO set

 Analyzing the MP2 density

 Job title: gdb_1

 Summary of Natural Population Analysis:

                                       Natural Population
                Natural  -----------------------------------------------
    Atom  No    Charge         Core      Valence    Rydberg      Total
 -----------------------------------------------------------------------
      C    1   -0.76420      1.99927     4.71555    0.04938     6.76420
      H    2    0.19105      0.00000     0.80395    0.00500     0.80895
      H    3    0.19105      0.00000     0.80395    0.00500     0.80895
      H    4    0.19105      0.00000     0.80395    0.00500     0.80895
      H    5    0.19105      0.00000     0.80395    0.00500     0.80895
 =======================================================================
   * Total *    0.00000      1.99927     7.93137    0.06937    10.00000

 Normal termination of Gaussian 09 at Fri Nov 16 15:40:11 2018.
