 Gaussian 09, Revision A.02,
 Gaussian 09:  AM64L-G09RevA.02 11-Jun-2009

 --------------------------------------------------------
 #mp2/6-311++G(d,p) density=current prop=(read,potential)
 --------------------------------------------------------

 -------------
 water pruebas
 -------------
 Symbolic Z-matrix:
 Charge =  0 Multiplicity = 1

                         Standard orientation:
 ---------------------------------------------------------------------
 Center     Atomic      Atomic             Coordinates (Angstroms)
 Number     Number       Type             X           Y           Z
 ---------------------------------------------------------------------
      1          8           0        0.000000    0.000000    0.110861
      2          1           0        0.000000    0.797899   -0.443443
      3          1           0        0.000000   -0.797899   -0.443443
 ---------------------------------------------------------------------

 SCF Done:  E(RHF) =  -76.0508474560     A.U. after   11 cycles
 E2 =    -0.2225450462D+00 EUMP2 =    -0.76273392502226D+02

 The electronic state is 1-A1.
 Alpha  occ. eigenvalues --  -20.56633  -1.34417  -0.72367  -0.57003  -0.50712
 Alpha virt. eigenvalues --    0.04335   0.07162   0.23989   0.24487   0.24596
 Alpha virt. eigenvalues --    0.26036   0.31729   0.32267   0.68864   0.70978
 Alpha virt. eigenvalues --    1.20336   1.24099   1.24513   1.48421   1.52352

 Mulliken atomic charges:
              1
     1  O   -0.528446
     2  H    0.264223
     3  H    0.264223
 Sum of Mulliken atomic charges =   0.00000

 Dipole moment (field-independent basis, Debye):
    X=              0.0000    Y=              0.0000    Z=             -2.0963  Tot=              2.0963
 Quadrupole moment (field-independent basis, Debye-Ang):
   XX=             -7.8903   YY=             -4.1837   ZZ=             -6.7295
   XY=              0.0000   XZ=              0.0000   YZ=              0.0000

 Normal termination of Gaussian 09 at Thu May 30 15:11:10 2019.
