 Gaussian 09, Revision A.02,

 ---------------------
 #T B3LYP/6-311++G opt
 ---------------------
 ---------
 gdb_2_opt
 ---------
 Symbolic Z-matrix:
 Charge =  0 Multiplicity = 1

 SCF Done:  E(RB3LYP) =  -56.5547450735     A.U. after    9 cycles
 SCF Done:  E(RB3LYP) =  -56.5577985769     A.U. after   10 cycles
 SCF Done:  E(RB3LYP) =  -56.5588537019     A.U. after   10 cycles
 SCF Done:  E(RB3LYP) =  -56.5589975343     A.U. after    7 cycles
 SCF Done:  E(RB3LYP) =  -56.5590078969     A.U. after    7 cycles
 SCF Done:  E(RB3LYP) =  -56.5590095544     A.U. after    7 cycles
 Optimization completed.
    -- Stationary point found.

 The electronic state is 1-A.
 Alpha  occ. eigenvalues --  -14.28886  -0.85361  -0.48674  -0.48671  -0.24699
 Alpha virt. eigenvalues --   -0.01404   0.03414   0.03414   0.11049   0.13998
 Alpha virt. eigenvalues --    0.13999   0.15213   0.18980   0.19425   0.19425
 Alpha virt. eigenvalues --    0.51065   0.51069   0.57459   0.77623   0.80621

 Normal termination of Gaussian 09 at Sat Nov 17 01:23:32 2018.
 Gaussian 09:  AM64L-G09RevA.02 11-Jun-2009

 ----------------------------------------------------------------------
 #T MP2/6-311++G(d,p) geom=check guess=read output=wfn density=current
 pop=npa
 ----------------------------------------------------------------------

 gdb_2
 -----
 Redundant internal coordinates taken from checkpoint file:
 gdb_2_chk.chk
 Charge =  0 Multiplicity = 1

                         Standard orientation:
 ---------------------------------------------------------------------
 Center     Atomic      Atomic             Coordinates (Angstroms)
 Number     Number       Type             X           Y           Z
 ---------------------------------------------------------------------
      1          7           0        0.000000   -0.000013   -0.061419
      2          1           0        0.848170   -0.498757    0.143317
      3          1           0       -0.856061   -0.485088    0.143317
      4          1           0        0.007893    0.983933    0.143299
 ---------------------------------------------------------------------

 SCF Done:  E(RHF) =  -56.2110548926     A.U. after   11 cycles
 E2 =    -0.2006257829D+00 EUMP2 =    -0.56411680675454D+02

 Mulliken atomic charges:
              1
     1  N   -0.731458
     2  H    0.243823
     3  H    0.243823
     4  H    0.243813
 Sum of Mulliken atomic charges =   0.00000

 Dipole moment (field-independent basis, Debye):
    X=              0.0000    Y=              0.0001    Z=              1.0381  Tot=              1.0381
 ******************************Gaussian NBO Version 3.1******************************
             N A T U R A L   A T O M I C   O R B I T A L   A N D
          N A T U R A L   B O N D   O R B I T A L   A N A L Y S I S
 ******************************Gaussian NBO Version 3.1******************************
       /RESON  / : Allow strongly delocalized NBO set

 Analyzing the MP2 density

 Job title: gdb_2

 Summary of Natural Population Analysis:

                                       Natural Population
                Natural  -----------------------------------------------
    Atom  No    Charge         Core      Valence    Rydberg      Total
 -----------------------------------------------------------------------
      N    1   -1.08210      1.99945     5.99951    0.08314     8.08210
      H    2    0.36064      0.00000     0.63421    0.00516     0.63936
      H    3    0.36064      0.00000     0.63421    0.00516     0.63936
      H    4    0.36063      0.00000     0.63421    0.00516     0.63937
 =======================================================================
   * Total *   -0.00019      1.99945     7.90213    0.09861    10.00019

 Normal termination of Gaussian 09 at Sat Nov 17 01:23:34 2018.
