 Gaussian 09, Revision A.02,

 ---------------------
 #T B3LYP/6-311++G opt
 ---------------------
 -----------
 gdb_214_opt
 -----------
 Symbolic Z-matrix:
 Charge =  0 Multiplicity = 1

 SCF Done:  E(RB3LYP) =  -232.250668714     A.U. after   10 cycles
 SCF Done:  E(RB3LYP) =  -232.250852323     A.U. after   13 cycles
 SCF Done:  E(RB3LYP) =  -232.250855887     A.U. after   14 cycles
 Optimization completed.
    -- Stationary point found.

 The electronic state is 1-A.
 Alpha  occ. eigenvalues --  -10.18406 -10.18382 -10.18382 -10.18327 -10.18327
 Alpha  occ. eigenvalues --  -10.18303  -0.86476  -0.75597  -0.75595  -0.61248
 Alpha  occ. eigenvalues --   -0.61247  -0.53499  -0.46958  -0.45810  -0.43352
 Alpha  occ. eigenvalues --   -0.43349  -0.37399  -0.35359  -0.35359  -0.26076
 Alpha  occ. eigenvalues --   -0.26074
 Alpha virt. eigenvalues --   -0.01467  -0.01466  -0.00643   0.01021   0.01023
 Alpha virt. eigenvalues --    0.03265   0.03267   0.06011   0.06384   0.07467
 Alpha virt. eigenvalues --    0.09078   0.09100   0.10124   0.11381   0.12050

 Normal termination of Gaussian 09 at Wed Mar 27 15:13:37 2019.
 Gaussian 09:  AM64L-G09RevA.02 11-Jun-2009

 ----------------------------------------------------------------------
 #T MP2/6-311G(d) geom=check guess=read output=wfn density=current pop=
 npa
 ----------------------------------------------------------------------

 gdb_214
 -------
 Redundant internal coordinates taken from checkpoint file:
 gdb_214_chk.chk
 Charge =  0 Multiplicity = 1

                         Standard orientation:
 ---------------------------------------------------------------------
 Center     Atomic      Atomic             Coordinates (Angstroms)
 Number     Number       Type             X           Y           Z
 ---------------------------------------------------------------------
      1          6           0        1.394101   -0.116378   -0.000003
      2          6           0        0.797836    1.149079    0.000003
      3          6           0       -0.596246    1.265416   -0.000004
      4          6           0       -1.394100    0.116373    0.000003
      5          6           0       -0.797840   -1.149076   -0.000003
      6          6           0        0.596248   -1.265414    0.000003
      7          1           0        2.472784   -0.206520   -0.000003
      8          1           0        1.415134    2.038251    0.000004
      9          1           0       -1.057607    2.244630    0.000001
     10          1           0       -2.472783    0.206528    0.000003
     11          1           0       -1.415126   -2.038256   -0.000004
     12          1           0        1.057607   -2.244630    0.000005
 ---------------------------------------------------------------------

 SCF Done:  E(RHF) =  -230.741853109     A.U. after    9 cycles
 E2 =    -0.7923531945D+00 EUMP2 =    -0.23153420630382D+03

 Mulliken atomic charges:
              1
     1  C   -0.209102
     2  C   -0.209119
     3  C   -0.209127
     4  C   -0.209102
     5  C   -0.209118
     6  C   -0.209128
     7  H    0.209122
     8  H    0.209118
     9  H    0.209108
    10  H    0.209121
    11  H    0.209119
    12  H    0.209108
 Sum of Mulliken atomic charges =   0.00000

 Dipole moment (field-independent basis, Debye):
    X=              0.0000    Y=              0.0000    Z=              0.0000  Tot=              0.0000
 ******************************Gaussian NBO Version 3.1******************************
             N A T U R A L   A T O M I C   O R B I T A L   A N D
          N A T U R A L   B O N D   O R B I T A L   A N A L Y S I S
 ******************************Gaussian NBO Version 3.1******************************
       /RESON  / : Allow strongly delocalized NBO set

 Analyzing the MP2 density

 Job title: gdb_214

 Summary of Natural Population Analysis:

                                       Natural Population
                Natural  -----------------------------------------------
    Atom  No    Charge         Core      Valence    Rydberg      Total
 -----------------------------------------------------------------------
      C    1   -0.19711      1.99892     4.14798    0.05022     6.19711
      C    2   -0.19710      1.99892     4.14796    0.05021     6.19710
      C    3   -0.19710      1.99892     4.14797    0.05022     6.19710
      C    4   -0.19711      1.99892     4.14798    0.05022     6.19711
      C    5   -0.19710      1.99892     4.14796    0.05021     6.19710
      C    6   -0.19710      1.99892     4.14797    0.05022     6.19710
      H    7    0.19711      0.00000     0.79924    0.00365     0.80289
      H    8    0.19710      0.00000     0.79924    0.00365     0.80290
      H    9    0.19710      0.00000     0.79925    0.00365     0.80290
      H   10    0.19711      0.00000     0.79924    0.00365     0.80289
      H   11    0.19710      0.00000     0.79924    0.00365     0.80290
      H   12    0.19710      0.00000     0.79925    0.00365     0.80290
 =======================================================================
   * Total *    0.00000     11.99352    29.68327    0.32321    42.00000

 Normal termination of Gaussian 09 at Wed Mar 27 15:14:33 2019.
