 Gaussian 09, Revision A.02,
 Gaussian 09:  AM64L-G09RevA.02 11-Jun-2009

 --------------------------------------------------------------------
 #MP2/6-311++G(d,p) NoSymmetry Prop=(read, potential) density=current
 --------------------------------------------------------------------

 -------------
 gdb_000214_ep
 -------------
 Symbolic Z-matrix:
 Charge =  0 Multiplicity = 1

                          Input orientation:
 ---------------------------------------------------------------------
 Center     Atomic      Atomic             Coordinates (Angstroms)
 Number     Number       Type             X           Y           Z
 ---------------------------------------------------------------------
      1          6           0        1.394100   -0.116400    0.000000
      2          6           0        0.797800    1.149100    0.000000
      3          6           0       -0.596200    1.265400    0.000000
      4          6           0       -1.394100    0.116400    0.000000
      5          6           0       -0.797800   -1.149100    0.000000
      6          6           0        0.596200   -1.265400    0.000000
      7          1           0        2.472800   -0.206500    0.000000
      8          1           0        1.415100    2.038300    0.000000
      9          1           0       -1.057600    2.244600    0.000000
     10          1           0       -2.472800    0.206500    0.000000
     11          1           0       -1.415100   -2.038300    0.000000
     12          1           0        1.057600   -2.244600    0.000000
 ---------------------------------------------------------------------

 SCF Done:  E(RHF) =  -230.755683231     A.U. after   11 cycles
 E2 =    -0.8284915291D+00 EUMP2 =    -0.23158417476044D+03

 Alpha  occ. eigenvalues --  -11.24016 -11.23961 -11.23960 -11.23841 -11.23839
 Alpha  occ. eigenvalues --  -11.23781  -1.14965  -1.01527  -1.01525  -0.82507
 Alpha  occ. eigenvalues --   -0.82503  -0.71007  -0.64650  -0.61907  -0.58957
 Alpha  occ. eigenvalues --   -0.58956  -0.50016  -0.49658  -0.49651  -0.33628
 Alpha  occ. eigenvalues --   -0.33626
 Alpha virt. eigenvalues --    0.04214   0.04894   0.04894   0.06619   0.06620
 Alpha virt. eigenvalues --    0.08801   0.10836   0.10839   0.12960   0.15271
 Alpha virt. eigenvalues --    0.15271   0.15818   0.16277   0.18089   0.18090

 Mulliken atomic charges:
              1
     1  C   -0.178464
     2  C   -0.178425
     3  C   -0.178314
     4  C   -0.178464
     5  C   -0.178425
     6  C   -0.178314
     7  H    0.178408
     8  H    0.178405
     9  H    0.178390
    10  H    0.178408
    11  H    0.178405
    12  H    0.178390
 Sum of Mulliken atomic charges =   0.00000

 Dipole moment (field-independent basis, Debye):
    X=              0.0000    Y=              0.0000    Z=              0.0000  Tot=              0.0000
 Quadrupole moment (field-independent basis, Debye-Ang):
   XX=            -32.5255   YY=            -32.5270   ZZ=            -40.8687
   XY=              0.0000   XZ=              0.0000   YZ=              0.0000

 Normal termination of Gaussian 09 at Mon Nov 25 10:38:42 2019.
